11
Step 0
 C                  0.00000000    1.39661300    0.00000000
 C                  1.20950300    0.69830700    0.00000000
 C                  1.20950300   -0.69830700    0.00000000
 C                  0.00000000   -1.39661300    0.00000000
 C                 -1.20950300   -0.69830700    0.00000000
 C                 -1.20950300    0.69830700    0.00000000
 H                  2.15088200    1.24181200    0.00000000
 H                  2.15088200   -1.24181200    0.00000000
 H                  0.00000000   -2.48362500    0.00000000
 H                 -2.15088200   -1.24181200    0.00000000
 H                 -2.15088200    1.24181200    0.00000000

11
Step 0
 C                  0.00000000    1.39661300    0.00000000
 C                  1.20950300    0.69830700    0.00000000
 C                  1.20950300   -0.69830700    0.00000000
 C                  0.00000000   -1.39661300    0.00000000
 C                 -1.20950300   -0.69830700    0.00000000
 C                 -1.20950300    0.69830700    0.00000000
 H                  2.15088200    1.24181200    0.00000000
 H                  2.15088200   -1.24181200    0.00000000
 H                  0.00000000   -2.48362500    0.00000000
 H                 -2.15088200   -1.24181200    0.00000000
 H                 -2.15088200    1.24181200    0.00000000

11
Step 1
   C    0.00000000    1.31191545    0.00000000
   C    1.26707924    0.71792080    0.00000000
   C    1.23657483   -0.67248612    0.00000000
   C    0.00000000   -1.41889059    0.00000000
   C   -1.23657483   -0.67248612    0.00000000
   C   -1.26707924    0.71792080    0.00000000
   H    2.16069725    1.24455232    0.00000000
   H    2.15221313   -1.23688931    0.00000000
   H    0.00000000   -2.48284523    0.00000000
   H   -2.15221313   -1.23688931    0.00000000
   H   -2.16069725    1.24455232    0.00000000

11
Step 2
   C    0.00000000    1.32080203    0.00000000
   C    1.21571696    0.67351355    0.00000000
   C    1.23476037   -0.68239826    0.00000000
   C    0.00000000   -1.34799976    0.00000000
   C   -1.23476037   -0.68239826    0.00000000
   C   -1.21571696    0.67351355    0.00000000
   H    2.20260803    1.27204766    0.00000000
   H    2.16382971   -1.23915630    0.00000000
   H    0.00000000   -2.50444057    0.00000000
   H   -2.16382971   -1.23915630    0.00000000
   H   -2.20260803    1.27204766    0.00000000

11
Step 3
   C    0.00000000    1.31591060    0.00000000
   C    1.25373584    0.69889503    0.00000000
   C    1.23948582   -0.68789616    0.00000000
   C    0.00000000   -1.38666081    0.00000000
   C   -1.23948582   -0.68789616    0.00000000
   C   -1.25373584    0.69889503    0.00000000
   H    2.18767435    1.26380771    0.00000000
   H    2.16464215   -1.23925379    0.00000000
   H    0.00000000   -2.48398035    0.00000000
   H   -2.16464215   -1.23925379    0.00000000
   H   -2.18767435    1.26380771    0.00000000

11
Step 4
   C    0.00000000    1.30325976    0.00000000
   C    1.26459219    0.69791270    0.00000000
   C    1.23681799   -0.67908417    0.00000000
   C    0.00000000   -1.38864101    0.00000000
   C   -1.23681799   -0.67908417    0.00000000
   C   -1.26459219    0.69791270    0.00000000
   H    2.18541158    1.26326453    0.00000000
   H    2.17323087   -1.24307619    0.00000000
   H    0.00000000   -2.47627749    0.00000000
   H   -2.17323087   -1.24307619    0.00000000
   H   -2.18541158    1.26326453    0.00000000

11
Step 5
   C    0.00000000    1.30162652    0.00000000
   C    1.26563705    0.69808340    0.00000000
   C    1.24678039   -0.68433607    0.00000000
   C    0.00000000   -1.38439439    0.00000000
   C   -1.24678039   -0.68433607    0.00000000
   C   -1.26563705    0.69808340    0.00000000
   H    2.18650719    1.26459082    0.00000000
   H    2.17341058   -1.24248004    0.00000000
   H    0.00000000   -2.47257335    0.00000000
   H   -2.17341058   -1.24248004    0.00000000
   H   -2.18650719    1.26459082    0.00000000

11
Step 6
   C    0.00000000    1.30012010    0.00000000
   C    1.26592208    0.69613266    0.00000000
   C    1.24899944   -0.68626285    0.00000000
   C    0.00000000   -1.38081473    0.00000000
   C   -1.24899944   -0.68626285    0.00000000
   C   -1.26592208    0.69613266    0.00000000
   H    2.18883471    1.26757536    0.00000000
   H    2.17751256   -1.24466926    0.00000000
   H    0.00000000   -2.46848220    0.00000000
   H   -2.17751256   -1.24466926    0.00000000
   H   -2.18883471    1.26757536    0.00000000

11
Step 7
   C    0.00000000    1.29599308    0.00000000
   C    1.26859383    0.69501674    0.00000000
   C    1.25241653   -0.68681702    0.00000000
   C    0.00000000   -1.37700643    0.00000000
   C   -1.25241653   -0.68681702    0.00000000
   C   -1.26859383    0.69501674    0.00000000
   H    2.18949490    1.27014535    0.00000000
   H    2.18168219   -1.24741104    0.00000000
   H    0.00000000   -2.46447972    0.00000000
   H   -2.18168219   -1.24741104    0.00000000
   H   -2.18949490    1.27014535    0.00000000

11
Step 8
   C    0.00000000    1.29448256    0.00000000
   C    1.26876546    0.69492941    0.00000000
   C    1.25326473   -0.68664809    0.00000000
   C    0.00000000   -1.37715733    0.00000000
   C   -1.25326473   -0.68664809    0.00000000
   C   -1.26876546    0.69492941    0.00000000
   H    2.18932703    1.27148065    0.00000000
   H    2.18242230   -1.24876026    0.00000000
   H    0.00000000   -2.46295365    0.00000000
   H   -2.18242230   -1.24876026    0.00000000
   H   -2.18932703    1.27148065    0.00000000

11
Step 9
   C    0.00000000    1.29415792    0.00000000
   C    1.26925621    0.69492101    0.00000000
   C    1.25333878   -0.68683411    0.00000000
   C    0.00000000   -1.37637278    0.00000000
   C   -1.25333878   -0.68683411    0.00000000
   C   -1.26925621    0.69492101    0.00000000
   H    2.18850378    1.27259801    0.00000000
   H    2.18245259   -1.24994510    0.00000000
   H    0.00000000   -2.46288976    0.00000000
   H   -2.18245259   -1.24994510    0.00000000
   H   -2.18850378    1.27259801    0.00000000

11
Step 10
   C    0.00000000    1.29400789    0.00000000
   C    1.26917553    0.69497453    0.00000000
   C    1.25327694   -0.68692447    0.00000000
   C    0.00000000   -1.37625003    0.00000000
   C   -1.25327694   -0.68692447    0.00000000
   C   -1.26917553    0.69497453    0.00000000
   H    2.18736140    1.27397585    0.00000000
   H    2.18156804   -1.25115210    0.00000000
   H    0.00000000   -2.46313047    0.00000000
   H   -2.18156804   -1.25115210    0.00000000
   H   -2.18736140    1.27397585    0.00000000

11
Step 11
   C    0.00000000    1.29391339    0.00000000
   C    1.26895844    0.69494823    0.00000000
   C    1.25319154   -0.68705222    0.00000000
   C    0.00000000   -1.37644103    0.00000000
   C   -1.25319154   -0.68705222    0.00000000
   C   -1.26895844    0.69494823    0.00000000
   H    2.18619904    1.27555698    0.00000000
   H    2.18040598   -1.25239080    0.00000000
   H    0.00000000   -2.46322174    0.00000000
   H   -2.18040598   -1.25239080    0.00000000
   H   -2.18619904    1.27555698    0.00000000

11
Step 12
   C    0.00000000    1.29390795    0.00000000
   C    1.26894294    0.69491769    0.00000000
   C    1.25319073   -0.68704191    0.00000000
   C    0.00000000   -1.37652121    0.00000000
   C   -1.25319073   -0.68704191    0.00000000
   C   -1.26894294    0.69491769    0.00000000
   H    2.18616903    1.27569862    0.00000000
   H    2.18025862   -1.25246238    0.00000000
   H    0.00000000   -2.46323577    0.00000000
   H   -2.18025862   -1.25246238    0.00000000
   H   -2.18616903    1.27569862    0.00000000

11
Step 13
   C    0.00000000    1.29390795    0.00000000
   C    1.26894294    0.69491769    0.00000000
   C    1.25319073   -0.68704191    0.00000000
   C    0.00000000   -1.37652121    0.00000000
   C   -1.25319073   -0.68704191    0.00000000
   C   -1.26894294    0.69491769    0.00000000
   H    2.18616903    1.27569862    0.00000000
   H    2.18025862   -1.25246238    0.00000000
   H    0.00000000   -2.46323577    0.00000000
   H   -2.18025862   -1.25246238    0.00000000
   H   -2.18616903    1.27569862    0.00000000

