2
Step 0
26 0.000000 0.000000 1.000000
8 0.000000 0.000000 1.670000
2
Step 1
  26    0.00000000    0.00000000    0.90000000
   8    0.00000000    0.00000000    1.77000000
2
Step 2
  26    0.00000000    0.00000000    0.84724765
   8    0.00000000    0.00000000    1.82275235
2
Step 3
  26    0.00000000    0.00000000    0.80812447
   8    0.00000000    0.00000000    1.86187553
2
Step 4
  26    0.00000000    0.00000000    0.76864819
   8    0.00000000    0.00000000    1.90135181
2
Step 5
  26    0.00000000    0.00000000    0.73444031
   8    0.00000000    0.00000000    1.93555969
2
Step 6
  26    0.00000000    0.00000000    0.70648924
   8    0.00000000    0.00000000    1.96351076
2
Step 7
  26    0.00000000    0.00000000    0.68745272
   8    0.00000000    0.00000000    1.98254728
2
Step 8
  26    0.00000000    0.00000000    0.67753530
   8    0.00000000    0.00000000    1.99246470
2
Step 9
  26    0.00000000    0.00000000    0.67426026
   8    0.00000000    0.00000000    1.99573974
2
Step 10
  26    0.00000000    0.00000000    0.67375265
   8    0.00000000    0.00000000    1.99624735
