11
Step 0
  6      0.0000000      1.2939080      0.0000000
  6      1.2689429      0.6949177      0.0000000
  6      1.2531907     -0.6870419      0.0000000
  6      0.0000000     -1.3765212      0.0000000
  6     -1.2531907     -0.6870419      0.0000000
  6     -1.2689429      0.6949177      0.0000000
  1      2.1861690      1.2756986      0.0000000
  1      2.1802586     -1.2524624      0.0000000
  1      0.0000000     -2.4632358      0.0000000
  1     -2.1802586     -1.2524624      0.0000000
  1     -2.1861690      1.2756986      0.0000000
11
Step 1
   6    0.00000000    1.24873324    0.00000000
   6    1.22984876    0.72502022    0.00000000
   6    1.27343288   -0.67914009    0.00000000
   6    0.00000000   -1.40773004    0.00000000
   6   -1.27343288   -0.67914009    0.00000000
   6   -1.22984876    0.72502022    0.00000000
   1    2.18694627    1.27611791    0.00000000
   1    2.17747766   -1.25458149    0.00000000
   1    0.00000000   -2.45946131    0.00000000
   1   -2.17747766   -1.25458149    0.00000000
   1   -2.18694627    1.27611791    0.00000000
11
Step 2
   6    0.00000000    1.14873324    0.00000000
   6    1.16157166    0.78829999    0.00000000
   6    1.29506211   -0.66657871    0.00000000
   6    0.00000000   -1.44801449    0.00000000
   6   -1.29506211   -0.66657871    0.00000000
   6   -1.16157166    0.78829999    0.00000000
   1    2.18398226    1.27756762    0.00000000
   1    2.17695368   -1.25954520    0.00000000
   1    0.00000000   -2.46383115    0.00000000
   1   -2.17695368   -1.25954520    0.00000000
   1   -2.18398226    1.27756762    0.00000000
11
Step 3
   6    0.00000000    1.22148934    0.00000000
   6    1.20847221    0.76905870    0.00000000
   6    1.27026611   -0.70153151    0.00000000
   6    0.00000000   -1.41742514    0.00000000
   6   -1.27026611   -0.70153151    0.00000000
   6   -1.20847221    0.76905870    0.00000000
   1    2.18198098    1.27966120    0.00000000
   1    2.17841333   -1.25779749    0.00000000
   1    0.00000000   -2.46647101    0.00000000
   1   -2.17841333   -1.25779749    0.00000000
   1   -2.18198098    1.27966120    0.00000000
11
Step 4
   6    0.00000000    1.32148934    0.00000000
   6    1.19400418    0.74264201    0.00000000
   6    1.19458241   -0.73414143    0.00000000
   6    0.00000000   -1.40627440    0.00000000
   6   -1.19458241   -0.73414143    0.00000000
   6   -1.19400418    0.74264201    0.00000000
   1    2.18390964    1.29037801    0.00000000
   1    2.18791677   -1.26644971    0.00000000
   1    0.00000000   -2.46369770    0.00000000
   1   -2.18791677   -1.26644971    0.00000000
   1   -2.18390964    1.29037801    0.00000000
11
Step 5
   6    0.00000000    1.42148934    0.00000000
   6    1.24195883    0.65699876    0.00000000
   6    1.14954881   -0.69688904    0.00000000
   6    0.00000000   -1.38434704    0.00000000
   6   -1.14954881   -0.69688904    0.00000000
   6   -1.24195883    0.65699876    0.00000000
   1    2.16815780    1.29177347    0.00000000
   1    2.18959368   -1.26862292    0.00000000
   1    0.00000000   -2.48728784    0.00000000
   1   -2.18959368   -1.26862292    0.00000000
   1   -2.16815780    1.29177347    0.00000000
11
Step 6
   6    0.00000000    1.40276110    0.00000000
   6    1.34195883    0.62785078    0.00000000
   6    1.09327113   -0.66425427    0.00000000
   6    0.00000000   -1.40233133    0.00000000
   6   -1.09327113   -0.66425427    0.00000000
   6   -1.34195883    0.62785078    0.00000000
   1    2.16668015    1.28440397    0.00000000
   1    2.17384770   -1.25270908    0.00000000
   1    0.00000000   -2.47463750    0.00000000
   1   -2.17384770   -1.25270908    0.00000000
   1   -2.16668015    1.28440397    0.00000000
11
Step 7
   6    0.00000000    1.44596988    0.00000000
   6    1.24195883    0.63802821    0.00000000
   6    1.13219494   -0.69012922    0.00000000
   6    0.00000000   -1.38224634    0.00000000
   6   -1.13219494   -0.69012922    0.00000000
   6   -1.24195883    0.63802821    0.00000000
   1    2.16674251    1.29312938    0.00000000
   1    2.19464214   -1.27198047    0.00000000
   1    0.00000000   -2.48544433    0.00000000
   1   -2.19464214   -1.27198047    0.00000000
   1   -2.16674251    1.29312938    0.00000000
11
Step 8
   6    0.00000000    1.47228969    0.00000000
   6    1.23013267    0.70232923    0.00000000
   6    1.21047585   -0.72303418    0.00000000
   6    0.00000000   -1.39789765    0.00000000
   6   -1.21047585   -0.72303418    0.00000000
   6   -1.23013267    0.70232923    0.00000000
   1    2.11531787    1.26000580    0.00000000
   1    2.17884471   -1.27302481    0.00000000
   1    0.00000000   -2.49056915    0.00000000
   1   -2.17884471   -1.27302481    0.00000000
   1   -2.11531787    1.26000580    0.00000000
11
Step 9
   6    0.00000000    1.54270238    0.00000000
   6    1.17261641    0.80232923    0.00000000
   6    1.30944658   -0.77762660    0.00000000
   6    0.00000000   -1.44596025    0.00000000
   6   -1.30944658   -0.77762660    0.00000000
   6   -1.17261641    0.80232923    0.00000000
   1    2.03503197    1.21835382    0.00000000
   1    2.15955532   -1.28432693    0.00000000
   1    0.00000000   -2.49782632    0.00000000
   1   -2.15955532   -1.28432693    0.00000000
   1   -2.03503197    1.21835382    0.00000000
11
Step 10
   6    0.00000000    1.49179577    0.00000000
   6    1.19440656    0.74326626    0.00000000
   6    1.25114272   -0.73236071    0.00000000
   6    0.00000000   -1.43473427    0.00000000
   6   -1.25114272   -0.73236071    0.00000000
   6   -1.19440656    0.74326626    0.00000000
   1    2.11793407    1.25391626    0.00000000
   1    2.17727989   -1.28485166    0.00000000
   1    0.00000000   -2.50062689    0.00000000
   1   -2.17727989   -1.28485166    0.00000000
   1   -2.11793407    1.25391626    0.00000000
11
Step 11
   6    0.00000000    1.47776057    0.00000000
   6    1.19655494    0.73107753    0.00000000
   6    1.23358597   -0.72496728    0.00000000
   6    0.00000000   -1.43702183    0.00000000
   6   -1.23358597   -0.72496728    0.00000000
   6   -1.19655494    0.73107753    0.00000000
   1    2.12744487    1.26057555    0.00000000
   1    2.16140752   -1.27491959    0.00000000
   1    0.00000000   -2.50789624    0.00000000
   1   -2.16140752   -1.27491959    0.00000000
   1   -2.12744487    1.26057555    0.00000000
11
Step 12
   6    0.00000000    1.46837653    0.00000000
   6    1.19372286    0.72854724    0.00000000
   6    1.21771903   -0.71757251    0.00000000
   6    0.00000000   -1.44553218    0.00000000
   6   -1.21771903   -0.71757251    0.00000000
   6   -1.19372286    0.72854724    0.00000000
   1    2.13264188    1.26239983    0.00000000
   1    2.14492552   -1.26705882    0.00000000
   1    0.00000000   -2.51910093    0.00000000
   1   -2.14492552   -1.26705882    0.00000000
   1   -2.13264188    1.26239983    0.00000000
11
Step 13
   6    0.00000000    1.45687745    0.00000000
   6    1.18301386    0.72927777    0.00000000
   6    1.19012911   -0.70919713    0.00000000
   6    0.00000000   -1.45438346    0.00000000
   6   -1.19012911   -0.70919713    0.00000000
   6   -1.18301386    0.72927777    0.00000000
   1    2.13859834    1.26078529    0.00000000
   1    2.11577756   -1.25295941    0.00000000
   1    0.00000000   -2.54193214    0.00000000
   1   -2.11577756   -1.25295941    0.00000000
   1   -2.13859834    1.26078529    0.00000000
11
Step 14
   6    0.00000000    1.44998100    0.00000000
   6    1.18351277    0.73519935    0.00000000
   6    1.18005919   -0.70717806    0.00000000
   6    0.00000000   -1.46450374    0.00000000
   6   -1.18005919   -0.70717806    0.00000000
   6   -1.18351277    0.73519935    0.00000000
   1    2.13707124    1.25845789    0.00000000
   1    2.11384282   -1.24984934    0.00000000
   1    0.00000000   -2.54236204    0.00000000
   1   -2.11384282   -1.24984934    0.00000000
   1   -2.13707124    1.25845789    0.00000000
11
Step 15
   6    0.00000000    1.44564995    0.00000000
   6    1.18211647    0.73722918    0.00000000
   6    1.18067627   -0.71406061    0.00000000
   6    0.00000000   -1.45556839    0.00000000
   6   -1.18067627   -0.71406061    0.00000000
   6   -1.18211647    0.73722918    0.00000000
   1    2.13627643    1.25724898    0.00000000
   1    2.11976295   -1.24739018    0.00000000
   1    0.00000000   -2.53976140    0.00000000
   1   -2.11976295   -1.24739018    0.00000000
   1   -2.13627643    1.25724898    0.00000000
11
Step 16
   6    0.00000000    1.44018571    0.00000000
   6    1.18730515    0.73894846    0.00000000
   6    1.18709997   -0.71996260    0.00000000
   6    0.00000000   -1.45268865    0.00000000
   6   -1.18709997   -0.71996260    0.00000000
   6   -1.18730515    0.73894846    0.00000000
   1    2.13592657    1.25988758    0.00000000
   1    2.13331080   -1.24903900    0.00000000
   1    0.00000000   -2.53079105    0.00000000
   1   -2.13331080   -1.24903900    0.00000000
   1   -2.13592657    1.25988758    0.00000000
11
Step 17
   6    0.00000000    1.44670415    0.00000000
   6    1.19389376    0.73889688    0.00000000
   6    1.20123727   -0.72911481    0.00000000
   6    0.00000000   -1.44763271    0.00000000
   6   -1.20123727   -0.72911481    0.00000000
   6   -1.19389376    0.73889688    0.00000000
   1    2.13557584    1.26557733    0.00000000
   1    2.15256771   -1.25636211    0.00000000
   1    0.00000000   -2.52069113    0.00000000
   1   -2.15256771   -1.25636211    0.00000000
   1   -2.13557584    1.26557733    0.00000000
11
Step 18
   6    0.00000000    1.44378696    0.00000000
   6    1.18939633    0.73696803    0.00000000
   6    1.19279660   -0.72312590    0.00000000
   6    0.00000000   -1.44994827    0.00000000
   6   -1.19279660   -0.72312590    0.00000000
   6   -1.18939633    0.73696803    0.00000000
   1    2.13779970    1.26503988    0.00000000
   1    2.13901823   -1.25243047    0.00000000
   1    0.00000000   -2.53036688    0.00000000
   1   -2.13901823   -1.25243047    0.00000000
   1   -2.13779970    1.26503988    0.00000000
11
Step 19
   6    0.00000000    1.44299747    0.00000000
   6    1.18925888    0.73760930    0.00000000
   6    1.19229120   -0.72382187    0.00000000
   6    0.00000000   -1.45086044    0.00000000
   6   -1.19229120   -0.72382187    0.00000000
   6   -1.18925888    0.73760930    0.00000000
   1    2.13815498    1.26662539    0.00000000
   1    2.13912796   -1.25255625    0.00000000
   1    0.00000000   -2.53147525    0.00000000
   1   -2.13912796   -1.25255625    0.00000000
   1   -2.13815498    1.26662539    0.00000000
11
Step 20
   6    0.00000000    1.44119688    0.00000000
   6    1.19002923    0.73838139    0.00000000
   6    1.19231238   -0.72484320    0.00000000
   6    0.00000000   -1.45214860    0.00000000
   6   -1.19231238   -0.72484320    0.00000000
   6   -1.19002923    0.73838139    0.00000000
   1    2.13820332    1.26980692    0.00000000
   1    2.14028893   -1.25347476    0.00000000
   1    0.00000000   -2.53241410    0.00000000
   1   -2.14028893   -1.25347476    0.00000000
   1   -2.13820332    1.26980692    0.00000000
11
Step 21
   6    0.00000000    1.44163006    0.00000000
   6    1.18995721    0.73842472    0.00000000
   6    1.19261864   -0.72520666    0.00000000
   6    0.00000000   -1.45204221    0.00000000
   6   -1.19261864   -0.72520666    0.00000000
   6   -1.18995721    0.73842472    0.00000000
   1    2.13787949    1.27052483    0.00000000
   1    2.14039722   -1.25403089    0.00000000
   1    0.00000000   -2.53263696    0.00000000
   1   -2.14039722   -1.25403089    0.00000000
   1   -2.13787949    1.27052483    0.00000000
11
Step 22
   6    0.00000000    1.44131666    0.00000000
   6    1.19009372    0.73831365    0.00000000
   6    1.19276009   -0.72521726    0.00000000
   6    0.00000000   -1.45207882    0.00000000
   6   -1.19276009   -0.72521726    0.00000000
   6   -1.19009372    0.73831365    0.00000000
   1    2.13750468    1.27142783    0.00000000
   1    2.14028224   -1.25456077    0.00000000
   1    0.00000000   -2.53278986    0.00000000
   1   -2.14028224   -1.25456077    0.00000000
   1   -2.13750468    1.27142783    0.00000000
11
Step 23
   6    0.00000000    1.44035753    0.00000000
   6    1.19041121    0.73804134    0.00000000
   6    1.19321274   -0.72545587    0.00000000
   6    0.00000000   -1.45214773    0.00000000
   6   -1.19321274   -0.72545587    0.00000000
   6   -1.19041121    0.73804134    0.00000000
   1    2.13608338    1.27455572    0.00000000
   1    2.13990476   -1.25647806    0.00000000
   1    0.00000000   -2.53316116    0.00000000
   1   -2.13990476   -1.25647806    0.00000000
   1   -2.13608338    1.27455572    0.00000000
