43
Step 0
6 -2.892842 -1.301877 0.237341
6 -4.266955 -1.423239 0.433219
6 -5.031990 -0.269304 0.545210
6 -4.422884 0.973803 0.430223
6 -3.044699 1.030094 0.234942
1 -4.737473 -2.397711 0.478025
1 -6.104110 -0.338963 0.694091
1 -5.014713 1.879987 0.470605
6 -2.288473 2.276598 0.023727
6 -2.817038 3.552250 0.209723
6 -0.263703 3.163083 -0.693881
6 -2.027667 4.657217 -0.084964
1 -3.825146 3.684430 0.584583
6 -0.733278 4.462546 -0.556874
1 0.743573 2.951735 -1.036670
1 -2.420767 5.658915 0.053364
1 -0.090340 5.297730 -0.810249
6 -1.982469 -2.441776 0.031559
6 -2.349278 -3.774674 0.206935
6 0.144859 -3.065873 -0.665986
6 -1.425538 -4.771224 -0.082930
1 -3.337262 -4.034037 0.568573
6 -0.160620 -4.414257 -0.539395
1 1.122239 -2.728294 -0.993754
1 -1.692510 -5.814726 0.047026
1 0.584563 -5.161326 -0.787763
7 -0.744837 -2.109367 -0.384769
78 -0.165443 0.043743 -0.056405
7 -2.308853 -0.093079 0.173623
7 -1.023801 2.101990 -0.407740
6 1.725065 0.090177 0.028302
6 2.972104 0.100229 0.101031
6 4.375906 0.114769 0.176140
6 5.027039 0.229413 1.426191
6 5.154714 0.012973 -1.000207
6 6.410711 0.240312 1.490517
1 4.427900 0.307578 2.327629
6 6.537543 0.025904 -0.921984
1 4.653061 -0.074619 -1.958574
6 7.167485 0.138953 0.320157
1 6.906805 0.327974 2.451975
1 7.131340 -0.052192 -1.827274
1 8.251854 0.148198 0.376221
43
Step 1
   6   -2.89366293   -1.29806393    0.23426188
   6   -4.26739939   -1.42341887    0.43233269
   6   -5.03180915   -0.26930661    0.54548671
   6   -4.42331164    0.97379584    0.42935892
   6   -3.04485020    1.02659712    0.23170479
   1   -4.73772466   -2.39790197    0.47808511
   1   -6.10442737   -0.33898878    0.69408888
   1   -5.01496726    1.88014926    0.47064964
   6   -2.28217647    2.28239681    0.02213078
   6   -2.81764004    3.55430346    0.21225958
   6   -0.26834385    3.16166951   -0.69134184
   6   -2.03000486    4.65667546   -0.08472724
   1   -3.82538350    3.68530104    0.58534889
   6   -0.73073914    4.46150495   -0.55513141
   1    0.74339954    2.95132221   -1.03816605
   1   -2.42090193    5.65911196    0.05315940
   1   -0.09061591    5.29834674   -0.81072229
   6   -1.97532366   -2.44661313    0.03002387
   6   -2.34958197   -3.77691188    0.20933733
   6    0.14007977   -3.06556112   -0.66362574
   6   -1.42803307   -4.77096873   -0.08268617
   1   -3.33741097   -4.03490987    0.56928058
   6   -0.15813584   -4.41284737   -0.53782048
   1    1.12173406   -2.72825192   -0.99542841
   1   -1.69259955   -5.81493137    0.04683387
   1    0.58438679   -5.16199405   -0.78816093
   7   -0.77507339   -2.12671760   -0.39894773
  78   -0.06544300    0.05182105   -0.04999275
   7   -2.32740234   -0.09515961    0.18645124
   7   -1.05680714    2.11536186   -0.42258348
   6    1.65617123    0.08876823    0.03432818
   6    3.04736416    0.09985015    0.10829138
   6    4.34622736    0.11496192    0.17214564
   6    5.03523807    0.23023893    1.43722436
   6    5.16502679    0.01251846   -1.00980136
   6    6.40432855    0.24085058    1.49682551
   1    4.42784342    0.30757311    2.32726286
   6    6.53175559    0.02502870   -0.92927000
   1    4.65302838   -0.07450772   -1.95816889
   6    7.16769754    0.13898867    0.32026387
   1    6.90657760    0.32795521    2.45167810
   1    7.13116240   -0.05219757   -1.82695736
   1    8.25181997    0.14822384    0.37623108
43
Step 2
   6   -2.89802047   -1.29946105    0.23327215
   6   -4.26843444   -1.42419563    0.43113884
   6   -5.03215052   -0.26942210    0.54571700
   6   -4.42421565    0.97443216    0.42816232
   6   -3.04897000    1.02665197    0.23034610
   1   -4.73848469   -2.39843253    0.47799552
   1   -6.10507242   -0.33904369    0.69424114
   1   -5.01576237    1.88052066    0.47056887
   6   -2.29302425    2.28790049    0.02401614
   6   -2.81909106    3.55907702    0.21548969
   6   -0.27572659    3.16290404   -0.69037168
   6   -2.03159055    4.65646872   -0.08463208
   1   -3.82643767    3.68670134    0.58694542
   6   -0.72905082    4.46086546   -0.55263188
   1    0.74018232    2.94960997   -1.03897854
   1   -2.42130499    5.65985975    0.05284807
   1   -0.09068079    5.29948057   -0.81091157
   6   -1.98574562   -2.45298567    0.03199609
   6   -2.35029377   -3.78183238    0.21226677
   6    0.13351204   -3.06781860   -0.66289050
   6   -1.42958695   -4.77101037   -0.08263495
   1   -3.33828898   -4.03632303    0.57075966
   6   -0.15672840   -4.41215173   -0.53545234
   1    1.11799266   -2.72744798   -0.99655785
   1   -1.69286513   -5.81572207    0.04654863
   1    0.58452443   -5.16313082   -0.78828599
   7   -0.78669570   -2.13904890   -0.41825291
  78   -0.01694712    0.05601149   -0.04918181
   7   -2.33546240   -0.09512963    0.19724364
   7   -1.07134975    2.12776455   -0.44354654
   6    1.73976638    0.09091770    0.05150105
   6    2.96982490    0.09664043    0.10716459
   6    4.38601007    0.11654038    0.17359739
   6    5.03701364    0.23043197    1.44351031
   6    5.16781991    0.01262573   -1.01739700
   6    6.40347240    0.24126078    1.50087086
   1    4.42679330    0.30781891    2.32976343
   6    6.53205619    0.02432371   -0.93323787
   1    4.65272737   -0.07454344   -1.96049693
   6    7.16366717    0.13897874    0.32001395
   1    6.90695044    0.32811778    2.45321484
   1    7.13183329   -0.05241282   -1.82848859
   1    8.25190659    0.14827110    0.37626954
43
Step 3
   6   -2.90301274   -1.30691865    0.23750460
   6   -4.27328067   -1.42520123    0.43073755
   6   -5.03365428   -0.26942190    0.54566690
   6   -4.42894148    0.97484284    0.42767706
   6   -3.05519609    1.03337388    0.23458356
   1   -4.73992876   -2.39928748    0.47756612
   1   -6.10555807   -0.33908013    0.69462196
   1   -5.01723440    1.88104556    0.47016877
   6   -2.31586801    2.28362557    0.02574357
   6   -2.82427713    3.56267396    0.21852932
   6   -0.27193107    3.16976553   -0.69849380
   6   -2.02681348    4.66077507   -0.08584713
   1   -3.82888642    3.68891944    0.58938293
   6   -0.73436686    4.46757670   -0.54946308
   1    0.73125821    2.94800599   -1.03728828
   1   -2.42171327    5.66070488    0.05238557
   1   -0.09043670    5.29977850   -0.80975967
   6   -2.00728831   -2.45193390    0.03331717
   6   -2.35527459   -3.78562420    0.21528737
   6    0.13632947   -3.07276993   -0.66990833
   6   -1.42412375   -4.77478271   -0.08389610
   1   -3.34034582   -4.03879988    0.57302555
   6   -0.16121864   -4.41967056   -0.53235108
   1    1.10967224   -2.72688096   -0.99528794
   1   -1.69314752   -5.81663734    0.04612717
   1    0.58478820   -5.16351352   -0.78722547
   7   -0.76394424   -2.12741934   -0.42714239
  78   -0.09222809    0.05903295   -0.05084119
   7   -2.31181269   -0.09334479    0.19303133
   7   -1.04633887    2.11525558   -0.45205911
   6    1.79811755    0.09128729    0.05781725
   6    3.01754043    0.09752920    0.10915565
   6    4.38654223    0.11607432    0.17783032
   6    5.02144222    0.22948055    1.42739727
   6    5.14954906    0.01347282   -1.00510905
   6    6.42098754    0.24070373    1.49427533
   1    4.42401571    0.30818105    2.33513045
   6    6.54972061    0.02546835   -0.92437912
   1    4.65086635   -0.07498718   -1.96693016
   6    7.15695055    0.13884403    0.31958275
   1    6.90923474    0.32847496    2.45731923
   1    7.13484763   -0.05281016   -1.83255028
   1    8.24903122    0.14825409    0.37618042
43
Step 4
   6   -2.89901587   -1.29887347    0.23933932
   6   -4.27502000   -1.42397085    0.43129988
   6   -5.03591161   -0.26943009    0.54565443
   6   -4.43099464    0.97314970    0.42831094
   6   -3.05075117    1.02614061    0.23647212
   1   -4.74133241   -2.40030221    0.47728326
   1   -6.10616592   -0.33910968    0.69484137
   1   -5.01870094    1.88183170    0.46987807
   6   -2.29882103    2.28514721    0.01610567
   6   -2.82334654    3.55994026    0.21726342
   6   -0.27594880    3.16639542   -0.70024979
   6   -2.02925995    4.66215134   -0.08418723
   1   -3.83180769    3.69134213    0.59141352
   6   -0.73395953    4.47041518   -0.55048098
   1    0.73290168    2.94779701   -1.03824941
   1   -2.42170660    5.66185630    0.05226818
   1   -0.09043911    5.30062330   -0.80883435
   6   -1.99151822   -2.45149436    0.02450943
   6   -2.35429025   -3.78278973    0.21384939
   6    0.13490079   -3.07150684   -0.67245091
   6   -1.42636577   -4.77637572   -0.08226925
   1   -3.34301975   -4.04146593    0.57495241
   6   -0.16079374   -4.42233208   -0.53329801
   1    1.11045620   -2.72667643   -0.99594640
   1   -1.69301212   -5.81782316    0.04602227
   1    0.58493417   -5.16430694   -0.78634119
   7   -0.77308498   -2.11933201   -0.41600921
  78   -0.09714080    0.05456994   -0.05301561
   7   -2.31209156   -0.09301383    0.18905860
   7   -1.05562673    2.11137358   -0.44173547
   6    1.75877852    0.09165280    0.05553008
   6    3.03228192    0.09662999    0.11037480
   6    4.40131084    0.11616377    0.17586925
   6    5.03844541    0.23025467    1.43587976
   6    5.16742406    0.01357329   -1.00735358
   6    6.40307323    0.24080943    1.49598380
   1    4.42443331    0.30795394    2.33258470
   6    6.53046718    0.02493090   -0.92912298
   1    4.65046738   -0.07474916   -1.96559452
   6    7.17124850    0.13902571    0.32088713
   1    6.91081075    0.32851972    2.45776744
   1    7.13673941   -0.05287692   -1.83279355
   1    8.24552441    0.14824448    0.37604621
43
Step 5
   6   -2.89706304   -1.29700334    0.23974132
   6   -4.27136665   -1.42287389    0.43158317
   6   -5.03938447   -0.26993512    0.54577218
   6   -4.42780305    0.97270483    0.42868085
   6   -3.04822498    1.02521849    0.23632152
   1   -4.74269657   -2.40074373    0.47677558
   1   -6.10892762   -0.33928307    0.69524233
   1   -5.02013014    1.88209343    0.46939811
   6   -2.29524782    2.28546173    0.01191272
   6   -2.82243020    3.56080260    0.21560824
   6   -0.28411943    3.16405466   -0.70049480
   6   -2.03393780    4.66118816   -0.08158356
   1   -3.83261622    3.69353952    0.59329585
   6   -0.73323742    4.46524233   -0.55193314
   1    0.73238096    2.94698329   -1.03957894
   1   -2.42263175    5.66486812    0.05266285
   1   -0.08939366    5.30369952   -0.80805376
   6   -1.98689106   -2.44898386    0.02039751
   6   -2.35319038   -3.78432592    0.21199098
   6    0.12460751   -3.06815085   -0.67193886
   6   -1.43176295   -4.77591272   -0.07951471
   1   -3.34334449   -4.04349242    0.57655119
   6   -0.15988280   -4.41685988   -0.53516999
   1    1.11072851   -2.72603447   -0.99773189
   1   -1.69352286   -5.82085740    0.04641429
   1    0.58617333   -5.16708540   -0.78550208
   7   -0.77691445   -2.12432191   -0.41217199
  78   -0.05055383    0.04823632   -0.05597816
   7   -2.32135862   -0.09338675    0.18790172
   7   -1.06333461    2.11836724   -0.43979107
   6    1.73599891    0.09367353    0.05667472
   6    3.02482451    0.09399026    0.11413953
   6    4.39237670    0.11682509    0.17559311
   6    5.03693792    0.23084519    1.44663565
   6    5.16725808    0.01315850   -1.02184402
   6    6.42147838    0.24170880    1.50415078
   1    4.42685712    0.30753869    2.32790686
   6    6.54985486    0.02434575   -0.93379604
   1    4.65324142   -0.07387541   -1.95904695
   6    7.15452636    0.13882078    0.31901850
   1    6.90888531    0.32817796    2.45382782
   1    7.13440719   -0.05270905   -1.82912257
   1    8.25350180    0.14835342    0.37656814
43
Step 6
   6   -2.89845049   -1.30005055    0.23930504
   6   -4.27322263   -1.42389623    0.43192937
   6   -5.03744751   -0.26972583    0.54554436
   6   -4.42932135    0.97330744    0.42892960
   6   -3.05030447    1.02836358    0.23587704
   1   -4.74237147   -2.39981325    0.47650394
   1   -6.11042203   -0.33941503    0.69539224
   1   -5.01984174    1.88132970    0.46916279
   6   -2.30418386    2.28525488    0.01481455
   6   -2.82541685    3.56123204    0.21654108
   6   -0.28017271    3.16658560   -0.70280666
   6   -2.03167103    4.66248382   -0.08241213
   1   -3.83173005    3.69390295    0.59357437
   6   -0.73552879    4.46786659   -0.55129889
   1    0.72840911    2.94679693   -1.03925067
   1   -2.42295084    5.66529607    0.05290228
   1   -0.09007331    5.30285630   -0.80735567
   6   -1.99489058   -2.45044864    0.02322979
   6   -2.35585728   -3.78348002    0.21269642
   6    0.12935839   -3.07016556   -0.67412416
   6   -1.42859628   -4.77711994   -0.08059368
   1   -3.34245771   -4.04368618    0.57676235
   6   -0.16261460   -4.41893404   -0.53433693
   1    1.10670721   -2.72644218   -0.99744971
   1   -1.69381095   -5.82135094    0.04667892
   1    0.58554159   -5.16636386   -0.78493567
   7   -0.77484782   -2.12379643   -0.41622745
  78   -0.05705774    0.04990746   -0.05635139
   7   -2.31753389   -0.09342336    0.18821982
   7   -1.05950057    2.11598572   -0.44429762
   6    1.76303156    0.09337587    0.05992663
   6    3.02136543    0.09447412    0.11462114
   6    4.39029913    0.11647122    0.17587838
   6    5.04272836    0.23038514    1.43920123
   6    5.17201280    0.01397872   -1.01267372
   6    6.41281550    0.24132548    1.50019838
   1    4.42441084    0.30783076    2.33193893
   6    6.54099339    0.02462082   -0.93211693
   1    4.65095135   -0.07425412   -1.96427508
   6    7.16557507    0.13896134    0.32036907
   1    6.91307628    0.32863720    2.45878724
   1    7.13891076   -0.05309818   -1.83321198
   1    8.24816177    0.14829759    0.37624632
43
Step 7
   6   -2.90015318   -1.29840706    0.23977698
   6   -4.27442583   -1.42365792    0.43250954
   6   -5.03912522   -0.26995150    0.54588653
   6   -4.43048431    0.97326976    0.42943846
   6   -3.05197371    1.02591940    0.23640326
   1   -4.74298665   -2.39972109    0.47607938
   1   -6.11028334   -0.33943095    0.69527566
   1   -5.02048570    1.88101093    0.46877040
   6   -2.30248736    2.28596997    0.01297116
   6   -2.82619600    3.56180971    0.21586252
   6   -0.28373436    3.16700185   -0.70385061
   6   -2.03249007    4.66370466   -0.08204611
   1   -3.83314339    3.69558905    0.59523111
   6   -0.73621252    4.47136791   -0.55220822
   1    0.72735004    2.94612005   -1.04052048
   1   -2.42310440    5.66590359    0.05334930
   1   -0.09126832    5.30233484   -0.80587714
   6   -1.99480741   -2.45135859    0.02253686
   6   -2.35605732   -3.78426285    0.21186206
   6    0.12713521   -3.07156272   -0.67517663
   6   -1.42982546   -4.77736040   -0.08010740
   1   -3.34324397   -4.04505649    0.57803928
   6   -0.16229648   -4.42267030   -0.53542238
   1    1.10540906   -2.72588977   -0.99862671
   1   -1.69385775   -5.82197244    0.04712492
   1    0.58386307   -5.16524529   -0.78349171
   7   -0.77286646   -2.12181528   -0.41538728
  78   -0.07268298    0.04994081   -0.05848474
   7   -2.31216345   -0.09246356    0.18548181
   7   -1.05745057    2.11356685   -0.44326230
   6    1.76931582    0.09309400    0.06124180
   6    3.02596989    0.09503459    0.11577349
   6    4.40741350    0.11602509    0.17733165
   6    5.03273137    0.23033368    1.43701622
   6    5.16136222    0.01411941   -1.01052610
   6    6.41908147    0.24130870    1.49923837
   1    4.42698475    0.30758922    2.33021102
   6    6.54635808    0.02512667   -0.92960123
   1    4.65311902   -0.07391780   -1.96301559
   6    7.16660845    0.13890498    0.32000055
   1    6.91502573    0.32872970    2.45963165
   1    7.14129146   -0.05325593   -1.83426198
   1    8.24885910    0.14828747    0.37633567
43
Step 8
   6   -2.89888266   -1.29885606    0.23958806
   6   -4.27405182   -1.42310325    0.43280577
   6   -5.03953172   -0.26981205    0.54597348
   6   -4.43027373    0.97250086    0.42976129
   6   -3.05058412    1.02723885    0.23599606
   1   -4.74326943   -2.39969510    0.47584877
   1   -6.11132605   -0.33951943    0.69535809
   1   -5.02085162    1.88102453    0.46856143
   6   -2.30463108    2.28512261    0.01303503
   6   -2.82640237    3.56210919    0.21529159
   6   -0.28385542    3.16742003   -0.70478653
   6   -2.03299556    4.66402111   -0.08182567
   1   -3.83303837    3.69620913    0.59579538
   6   -0.73794334    4.46914145   -0.55233364
   1    0.72573938    2.94604042   -1.04088195
   1   -2.42352658    5.66681613    0.05377760
   1   -0.09074912    5.30365756   -0.80555976
   6   -1.99569882   -2.45020855    0.02233691
   6   -2.35689255   -3.78452612    0.21154796
   6    0.12626648   -3.07159810   -0.67569956
   6   -1.42971903   -4.77820268   -0.08009612
   1   -3.34289250   -4.04552633    0.57843272
   6   -0.16455869   -4.42045049   -0.53543603
   1    1.10433639   -2.72588660   -0.99918175
   1   -1.69412291   -5.82253939    0.04751236
   1    0.58464520   -5.16656680   -0.78327365
   7   -0.77307114   -2.12278905   -0.41431620
  78   -0.06645051    0.04921037   -0.05990497
   7   -2.31411353   -0.09296747    0.18434775
   7   -1.05752267    2.11423808   -0.44266839
   6    1.76746622    0.09326589    0.06155269
   6    3.02637743    0.09484459    0.11699819
   6    4.39968842    0.11590570    0.17738405
   6    5.04173441    0.23049071    1.43895759
   6    5.16997882    0.01406521   -1.01256181
   6    6.41728159    0.24145302    1.50045359
   1    4.42630679    0.30757827    2.33050336
   6    6.54501995    0.02501604   -0.93134709
   1    4.65276172   -0.07376710   -1.96278215
   6    7.16497650    0.13892027    0.32010854
   1    6.91580321    0.32872265    2.45938457
   1    7.14172171   -0.05322764   -1.83356776
   1    8.25092313    0.14829252    0.37642316
43
Step 9
   6   -2.89939958   -1.29875538    0.23934446
   6   -4.27398916   -1.42320911    0.43332145
   6   -5.03981082   -0.27001318    0.54621818
   6   -4.42996069    0.97289532    0.43018147
   6   -3.05137814    1.02701695    0.23561661
   1   -4.74347612   -2.39905377    0.47543515
   1   -6.11286113   -0.33964783    0.69542597
   1   -5.02113510    1.88037464    0.46818819
   6   -2.30497827    2.28563889    0.01240547
   6   -2.82831480    3.56201886    0.21492394
   6   -0.28455303    3.16687395   -0.70611191
   6   -2.03413039    4.66474123   -0.08160566
   1   -3.83274786    3.69744222    0.59676874
   6   -0.73879282    4.47099301   -0.55342091
   1    0.72329062    2.94599489   -1.04196800
   1   -2.42406272    5.66802553    0.05461232
   1   -0.09184344    5.30349374   -0.80424252
   6   -1.99636765   -2.45119960    0.02225141
   6   -2.35771708   -3.78407957    0.21082853
   6    0.12621033   -3.07118232   -0.67696105
   6   -1.43111325   -4.77871980   -0.07979386
   1   -3.34292648   -4.04659775    0.57936708
   6   -0.16512659   -4.42212767   -0.53647454
   1    1.10186007   -2.72615783   -1.00023898
   1   -1.69444594   -5.82358968    0.04828181
   1    0.58358292   -5.16639256   -0.78213643
   7   -0.77445292   -2.12279668   -0.41292358
  78   -0.06206995    0.04843793   -0.06230193
   7   -2.31450636   -0.09267581    0.18228265
   7   -1.05896355    2.11435647   -0.44176035
   6    1.76761135    0.09338120    0.06233314
   6    3.02694523    0.09479086    0.11899754
   6    4.40049533    0.11563395    0.17712260
   6    5.04331079    0.23045884    1.43948504
   6    5.17176373    0.01426553   -1.01143406
   6    6.41954800    0.24163761    1.50158150
   1    4.42733416    0.30746250    2.33003838
   6    6.54646438    0.02504245   -0.93254732
   1    4.65334970   -0.07350446   -1.96270859
   6    7.16930580    0.13899844    0.32049079
   1    6.91805158    0.32879951    2.45979056
   1    7.14381041   -0.05326312   -1.83351731
   1    8.25026146    0.14825456    0.37636698
43
Step 10
   6   -2.89956119   -1.29814809    0.23879785
   6   -4.27456707   -1.42271831    0.43426549
   6   -5.04089461   -0.26989448    0.54678951
   6   -4.43074245    0.97224660    0.43107076
   6   -3.05150492    1.02681209    0.23472600
   1   -4.74404279   -2.39841962    0.47475997
   1   -6.11457881   -0.33981741    0.69540091
   1   -5.02186091    1.87968990    0.46757004
   6   -2.30664359    2.28615029    0.01170724
   6   -2.82963205    3.56260075    0.21360217
   6   -0.28829393    3.16821503   -0.70763207
   6   -2.03609357    4.66589105   -0.08139727
   1   -3.83351621    3.69969212    0.59893318
   6   -0.74139712    4.47087567   -0.55485750
   1    0.72020087    2.94554916   -1.04447039
   1   -2.42504614    5.66994718    0.05620169
   1   -0.09292806    5.30458365   -0.80229615
   6   -1.99750277   -2.45125467    0.02207982
   6   -2.35957942   -3.78493552    0.20990552
   6    0.12285694   -3.07277142   -0.67805885
   6   -1.43245193   -4.77978063   -0.07979684
   1   -3.34311799   -4.04839147    0.58101024
   6   -0.16765940   -4.42220539   -0.53778838
   1    1.09909888   -2.72593504   -1.00277256
   1   -1.69516627   -5.82515166    0.04976695
   1    0.58261033   -5.16726831   -0.78048406
   7   -0.77488400   -2.12341111   -0.41117169
  78   -0.06043839    0.04758726   -0.06635092
   7   -2.31489832   -0.09283201    0.17851728
   7   -1.05954397    2.11452458   -0.44066168
   6    1.76973302    0.09333199    0.06358122
   6    3.02916268    0.09495120    0.12211588
   6    4.40413935    0.11523823    0.17848925
   6    5.04734805    0.23035555    1.43948054
   6    5.17448992    0.01436724   -1.01122288
   6    6.42265162    0.24175641    1.50143033
   1    4.42918860    0.30726453    2.32950423
   6    6.54923947    0.02540304   -0.93152851
   1    4.65505921   -0.07294136   -1.96161408
   6    7.17163871    0.13905491    0.32042757
   1    6.92247328    0.32900259    2.46114120
   1    7.14784724   -0.05336285   -1.83410396
   1    8.25287976    0.14821131    0.37644593
43
Step 11
   6   -2.90205596   -1.29715448    0.23631815
   6   -4.27614033   -1.41982983    0.43776074
   6   -5.04718053   -0.27030409    0.54967852
   6   -4.43256364    0.96985625    0.43418891
   6   -3.05395462    1.02632735    0.23091228
   1   -4.74668928   -2.39657991    0.47224861
   1   -6.12008294   -0.34038248    0.69508324
   1   -5.02524293    1.87747583    0.46526472
   6   -2.31278380    2.28597805    0.00902275
   6   -2.83702987    3.56679000    0.20931283
   6   -0.29923207    3.17081354   -0.71506149
   6   -2.04388095    4.67099691   -0.08141199
   1   -3.83632745    3.70853955    0.60751018
   6   -0.75400107    4.47429187   -0.56006753
   1    0.70530448    2.94493594   -1.05501731
   1   -2.42914710    5.67689414    0.06331855
   1   -0.09823668    5.30854282   -0.79432236
   6   -2.00302319   -2.45149729    0.02204293
   6   -2.36601054   -3.78877712    0.20620768
   6    0.11301799   -3.07652288   -0.68365132
   6   -1.43952132   -4.78458154   -0.07988278
   1   -3.34522661   -4.05585309    0.58802090
   6   -0.17839129   -4.42602952   -0.54285301
   1    1.08567520   -2.72634615   -1.01330401
   1   -1.69817835   -5.83057321    0.05630206
   1    0.57775437   -5.17057667   -0.77380768
   7   -0.77717001   -2.12612972   -0.40472771
  78   -0.06045961    0.04518070   -0.08254931
   7   -2.31576886   -0.09243853    0.16266015
   7   -1.06288749    2.11559175   -0.43653879
   6    1.78173180    0.09266044    0.06787026
   6    3.03922760    0.09594874    0.13458938
   6    4.41804512    0.11356308    0.18310546
   6    5.06388393    0.23008800    1.44217453
   6    5.18681032    0.01467038   -1.00946201
   6    6.43873729    0.24252637    1.50431683
   1    4.43893988    0.30631441    2.32650513
   6    6.56231193    0.02646141   -0.93182090
   1    4.66303600   -0.07051956   -1.95673969
   6    7.18046910    0.13943663    0.32120533
   1    6.94010838    0.32960743    2.46345516
   1    7.16311024   -0.05335764   -1.83312335
   1    8.26709491    0.14802507    0.37677890
43
Step 12
   6   -2.90280187   -1.29661617    0.23504977
   6   -4.27824379   -1.42084903    0.43818605
   6   -5.04612563   -0.26984124    0.55023382
   6   -4.43458654    0.97010301    0.43444216
   6   -3.05526632    1.02578026    0.22946867
   1   -4.74679299   -2.39586673    0.47216773
   1   -6.12154334   -0.34053547    0.69513646
   1   -5.02564153    1.87699858    0.46517620
   6   -2.31635806    2.28887676    0.00991912
   6   -2.83879005    3.56563550    0.20928616
   6   -0.30267229    3.17307430   -0.71556207
   6   -2.04734791    4.67270907   -0.08167087
   1   -3.83718487    3.70983408    0.60892680
   6   -0.75404842    4.47448654   -0.56177648
   1    0.70279133    2.94568525   -1.05872328
   1   -2.43025875    5.67731366    0.06561478
   1   -0.10080503    5.30907750   -0.79294474
   6   -2.00544909   -2.45393019    0.02301037
   6   -2.36839945   -3.78834116    0.20671911
   6    0.11117400   -3.07852932   -0.68428589
   6   -1.44159878   -4.78594436   -0.08041444
   1   -3.34617214   -4.05699384    0.58915213
   6   -0.17945195   -4.42692395   -0.54391755
   1    1.08298844   -2.72725923   -1.01656524
   1   -1.69941025   -5.83118781    0.05840611
   1    0.57564379   -5.17151512   -0.77289576
   7   -0.77787523   -2.12636261   -0.40506854
  78   -0.06201620    0.04577252   -0.08475263
   7   -2.31711209   -0.09273576    0.15956740
   7   -1.06295493    2.11608992   -0.43758501
   6    1.78320979    0.09209385    0.06687195
   6    3.04132390    0.09624577    0.13646035
   6    4.42191613    0.11355657    0.18470834
   6    5.06663979    0.22979040    1.44225422
   6    5.18859697    0.01463724   -1.00809748
   6    6.44377159    0.24266706    1.50548637
   1    4.44302045    0.30612322    2.32702494
   6    6.56606751    0.02662094   -0.93097429
   1    4.66603760   -0.06992178   -1.95552150
   6    7.18752580    0.13960009    0.32120523
   1    6.94521742    0.32974896    2.46297706
   1    7.16678023   -0.05306145   -1.83183251
   1    8.27027481    0.14795714    0.37664992
43
Step 13
   6   -2.90497206   -1.29766333    0.23410711
   6   -4.27846536   -1.42144419    0.43746297
   6   -5.04601712   -0.27005525    0.55055289
   6   -4.43508914    0.97102148    0.43360561
   6   -3.05758856    1.02626513    0.22853048
   1   -4.74698800   -2.39650178    0.47290611
   1   -6.12089745   -0.34046781    0.69522857
   1   -5.02589257    1.87750964    0.46580323
   6   -2.31605705    2.28900549    0.01036261
   6   -2.84038081    3.56650511    0.21087226
   6   -0.30223467    3.17349222   -0.71543940
   6   -2.04714856    4.67118968   -0.08303924
   1   -3.83799876    3.70910838    0.60876206
   6   -0.75566494    4.47609426   -0.56104715
   1    0.70216278    2.94748877   -1.06127206
   1   -2.43146692    5.67700259    0.06734715
   1   -0.10258170    5.30948860   -0.79345985
   6   -2.00560930   -2.45436542    0.02349745
   6   -2.36972516   -3.78927797    0.20848128
   6    0.11086596   -3.07899223   -0.68391011
   6   -1.44223790   -4.78488608   -0.08120174
   1   -3.34753927   -4.05661410    0.58908830
   6   -0.17992802   -4.42829969   -0.54340638
   1    1.08265807   -2.72875432   -1.01873113
   1   -1.70074971   -5.83111974    0.05987422
   1    0.57404366   -5.17243166   -0.77359396
   7   -0.77955544   -2.12735006   -0.40697542
  78   -0.06332203    0.04717381   -0.08359974
   7   -2.31854470   -0.09271853    0.15924126
   7   -1.06579789    2.11732948   -0.43915780
   6    1.78241224    0.09151423    0.06392039
   6    3.04094659    0.09628936    0.13577381
   6    4.42357344    0.11399839    0.18548377
   6    5.06797073    0.22946185    1.44189002
   6    5.18885877    0.01463032   -1.00587773
   6    6.44647451    0.24236477    1.50332506
   1    4.44671555    0.30610449    2.32906624
   6    6.56798968    0.02669713   -0.92784550
   1    4.66848236   -0.06970183   -1.95519409
   6    7.19228602    0.13976572    0.32166248
   1    6.94901532    0.32993558    2.46303612
   1    7.16869966   -0.05266233   -1.83097881
   1    8.27336982    0.14793281    0.37636161
43
Step 14
   6   -2.90679231   -1.29864134    0.23209877
   6   -4.27986750   -1.42153941    0.43642140
   6   -5.04752511   -0.27043077    0.55096478
   6   -4.43680861    0.97127494    0.43234561
   6   -3.05952018    1.02674433    0.22647798
   1   -4.74812420   -2.39826175    0.47431847
   1   -6.11972105   -0.34038109    0.69559726
   1   -5.02734925    1.87907350    0.46697844
   6   -2.31718524    2.28890766    0.01050395
   6   -2.84166755    3.56747786    0.21260799
   6   -0.30311490    3.17425427   -0.71631707
   6   -2.05040241    4.67148194   -0.08337947
   1   -3.84125227    3.70859335    0.60963001
   6   -0.75801672    4.47786289   -0.56055190
   1    0.69965252    2.95105551   -1.06668126
   1   -2.43354952    5.67532406    0.07059031
   1   -0.10619308    5.31135379   -0.79417275
   6   -2.00685124   -2.45506475    0.02374245
   6   -2.37019440   -3.78990385    0.21041482
   6    0.11047845   -3.07982780   -0.68468071
   6   -1.44565900   -4.78560271   -0.08094564
   1   -3.35168639   -4.05682937    0.59003565
   6   -0.18164879   -4.43029298   -0.54278371
   1    1.08038965   -2.73205149   -1.02324313
   1   -1.70330063   -5.83017394    0.06266528
   1    0.57081955   -5.17493137   -0.77470071
   7   -0.78321282   -2.12918662   -0.40950272
  78   -0.06567071    0.04900032   -0.08272359
   7   -2.32215962   -0.09249326    0.15778800
   7   -1.07002574    2.12006534   -0.44185246
   6    1.78278858    0.09063756    0.05844184
   6    3.04080850    0.09619967    0.13522378
   6    4.42494510    0.11457725    0.18670587
   6    5.07321471    0.22911748    1.44304559
   6    5.19309925    0.01482893   -1.00171682
   6    6.45295800    0.24210311    1.50268077
   1    4.45550454    0.30591431    2.33226672
   6    6.57203520    0.02660397   -0.92538313
   1    4.67413667   -0.06911808   -1.95378048
   6    7.19913157    0.14001060    0.32280783
   1    6.95661946    0.33016753    2.46165364
   1    7.17245289   -0.05178554   -1.82798603
   1    8.28253667    0.14794889    0.37590736
43
Step 15
   6   -2.91119012   -1.29924035    0.22879762
   6   -4.28284154   -1.42276246    0.43522047
   6   -5.04944079   -0.27042212    0.55111493
   6   -4.44025215    0.97185889    0.43072839