11
Step 0
   6    0.00000000    1.44035753    0.00000000
   6    1.19041121    0.73804134    0.00000000
   6    1.19321274   -0.72545587    0.00000000
   6    0.00000000   -1.45214773    0.00000000
   6   -1.19321274   -0.72545587    0.00000000
   6   -1.19041121    0.73804134    0.00000000
   1    2.13608338    1.27455572    0.00000000
   1    2.13990476   -1.25647806    0.00000000
   1    0.00000000   -2.53316116    0.00000000
   1   -2.13990476   -1.25647806    0.00000000
   1   -2.13608338    1.27455572    0.00000000
11
Step 1
   6    0.00000000    1.52965893    0.00000000
   6    1.16209529    0.72438131    0.00000000
   6    1.19530532   -0.73823765    0.00000000
   6    0.00000000   -1.49274637    0.00000000
   6   -1.19530532   -0.73823765    0.00000000
   6   -1.16209529    0.72438131    0.00000000
   1    2.12875298    1.28214890    0.00000000
   1    2.13258894   -1.26528441    0.00000000
   1    0.00000000   -2.52655398    0.00000000
   1   -2.13258894   -1.26528441    0.00000000
   1   -2.12875298    1.28214890    0.00000000
11
Step 2
   6    0.00000000    1.51946318    0.00000000
   6    1.16826815    0.74553405    0.00000000
   6    1.18204297   -0.75335510    0.00000000
   6    0.00000000   -1.45283346    0.00000000
   6   -1.18204297   -0.75335510    0.00000000
   6   -1.16826815    0.74553405    0.00000000
   1    2.12235488    1.27403923    0.00000000
   1    2.13815643   -1.26599517    0.00000000
   1    0.00000000   -2.55070084    0.00000000
   1   -2.13815643   -1.26599517    0.00000000
   1   -2.12235488    1.27403923    0.00000000
11
Step 3
   6    0.00000000    1.46731073    0.00000000
   6    1.18739648    0.75284038    0.00000000
   6    1.19791207   -0.73087253    0.00000000
   6    0.00000000   -1.45125827    0.00000000
   6   -1.19791207   -0.73087253    0.00000000
   6   -1.18739648    0.75284038    0.00000000
   1    2.12938258    1.26176016    0.00000000
   1    2.14534325   -1.26042409    0.00000000
   1    0.00000000   -2.54628539    0.00000000
   1   -2.14534325   -1.26042409    0.00000000
   1   -2.12938258    1.26176016    0.00000000
11
Step 4
   6    0.00000000    1.36731073    0.00000000
   6    1.20606144    0.75517923    0.00000000
   6    1.20590861   -0.69821051    0.00000000
   6    0.00000000   -1.44265534    0.00000000
   6   -1.20590861   -0.69821051    0.00000000
   6   -1.20606144    0.75517923    0.00000000
   1    2.15319468    1.25345902    0.00000000
   1    2.15632335   -1.24938832    0.00000000
   1    0.00000000   -2.53035933    0.00000000
   1   -2.15632335   -1.24938832    0.00000000
   1   -2.15319468    1.25345902    0.00000000
11
Step 5
   6    0.00000000    1.26731073    0.00000000
   6    1.21812293    0.74831345    0.00000000
   6    1.21324752   -0.68620564    0.00000000
   6    0.00000000   -1.42986087    0.00000000
   6   -1.21324752   -0.68620564    0.00000000
   6   -1.21812293    0.74831345    0.00000000
   1    2.17112095    1.26242917    0.00000000
   1    2.14802238   -1.23208612    0.00000000
   1    0.00000000   -2.50597667    0.00000000
   1   -2.14802238   -1.23208612    0.00000000
   1   -2.17112095    1.26242917    0.00000000
11
Step 6
   6    0.00000000    1.16731073    0.00000000
   6    1.22821561    0.71877452    0.00000000
   6    1.20691744   -0.67222245    0.00000000
   6    0.00000000   -1.40305165    0.00000000
   6   -1.20691744   -0.67222245    0.00000000
   6   -1.22821561    0.71877452    0.00000000
   1    2.17516860    1.29039952    0.00000000
   1    2.13660716   -1.22094593    0.00000000
   1    0.00000000   -2.47989553    0.00000000
   1   -2.13660716   -1.22094593    0.00000000
   1   -2.17516860    1.29039952    0.00000000
11
Step 7
   6    0.00000000    1.06731073    0.00000000
   6    1.26830966    0.64750073    0.00000000
   6    1.20704684   -0.65237689    0.00000000
   6    0.00000000   -1.34851741    0.00000000
   6   -1.20704684   -0.65237689    0.00000000
   6   -1.26830966    0.64750073    0.00000000
   1    2.17926341    1.33509210    0.00000000
   1    2.12042031   -1.20579387    0.00000000
   1    0.00000000   -2.45126261    0.00000000
   1   -2.12042031   -1.20579387    0.00000000
   1   -2.17926341    1.33509210    0.00000000
11
Step 8
   6    0.00000000    1.16731073    0.00000000
   6    1.26369241    0.65433398    0.00000000
   6    1.20369906   -0.68448205    0.00000000
   6    0.00000000   -1.35881043    0.00000000
   6   -1.20369906   -0.68448205    0.00000000
   6   -1.26369241    0.65433398    0.00000000
   1    2.16691412    1.33356990    0.00000000
   1    2.12284086   -1.21751842    0.00000000
   1    0.00000000   -2.46393229    0.00000000
   1   -2.12284086   -1.21751842    0.00000000
   1   -2.16691412    1.33356990    0.00000000
11
Step 9
   6    0.00000000    1.23655768    0.00000000
   6    1.22785473    0.72467339    0.00000000
   6    1.22965964   -0.66363300    0.00000000
   6    0.00000000   -1.42514803    0.00000000
   6   -1.22965964   -0.66363300    0.00000000
   6   -1.22785473    0.72467339    0.00000000
   1    2.14948061    1.28752962    0.00000000
   1    2.15455988   -1.25065043    0.00000000
   1    0.00000000   -2.49087392    0.00000000
   1   -2.15455988   -1.25065043    0.00000000
   1   -2.14948061    1.28752962    0.00000000
11
Step 10
   6    0.00000000    1.28273647    0.00000000
   6    1.23903397    0.69480341    0.00000000
   6    1.23707198   -0.68923641    0.00000000
   6    0.00000000   -1.39608513    0.00000000
   6   -1.23707198   -0.68923641    0.00000000
   6   -1.23903397    0.69480341    0.00000000
   1    2.14477134    1.30769809    0.00000000
   1    2.15000446   -1.25270856    0.00000000
   1    0.00000000   -2.49138954    0.00000000
   1   -2.15000446   -1.25270856    0.00000000
   1   -2.14477134    1.30769809    0.00000000
11
Step 11
   6    0.00000000    1.28263895    0.00000000
   6    1.25846744    0.69059300    0.00000000
   6    1.23551744   -0.69063863    0.00000000
   6    0.00000000   -1.39631431    0.00000000
   6   -1.23551744   -0.69063863    0.00000000
   6   -1.25846744    0.69059300    0.00000000
   1    2.14435882    1.31125142    0.00000000
   1    2.15788309   -1.25700386    0.00000000
   1    0.00000000   -2.47835364    0.00000000
   1   -2.15788309   -1.25700386    0.00000000
   1   -2.14435882    1.31125142    0.00000000
11
Step 12
   6    0.00000000    1.28655607    0.00000000
   6    1.25822497    0.69148545    0.00000000
   6    1.25157874   -0.69011957    0.00000000
   6    0.00000000   -1.38944392    0.00000000
   6   -1.25157874   -0.69011957    0.00000000
   6   -1.25822497    0.69148545    0.00000000
   1    2.15110417    1.30972260    0.00000000
   1    2.16717818   -1.26280835    0.00000000
   1    0.00000000   -2.47729757    0.00000000
   1   -2.16717818   -1.26280835    0.00000000
   1   -2.15110417    1.30972260    0.00000000
11
Step 13
   6    0.00000000    1.29317486    0.00000000
   6    1.25732366    0.69608913    0.00000000
   6    1.25815802   -0.68840885    0.00000000
   6    0.00000000   -1.38808510    0.00000000
   6   -1.25815802   -0.68840885    0.00000000
   6   -1.25732366    0.69608913    0.00000000
   1    2.15714722    1.30318046    0.00000000
   1    2.17682636   -1.26721294    0.00000000
   1    0.00000000   -2.47601050    0.00000000
   1   -2.17682636   -1.26721294    0.00000000
   1   -2.15714722    1.30318046    0.00000000
11
Step 14
   6    0.00000000    1.29464237    0.00000000
   6    1.25841131    0.69768353    0.00000000
   6    1.26005547   -0.68869646    0.00000000
   6    0.00000000   -1.38692060    0.00000000
   6   -1.26005547   -0.68869646    0.00000000
   6   -1.25841131    0.69768353    0.00000000
   1    2.16234481    1.29834593    0.00000000
   1    2.18023229   -1.26654825    0.00000000
   1    0.00000000   -2.47291642    0.00000000
   1   -2.18023229   -1.26654825    0.00000000
   1   -2.16234481    1.29834593    0.00000000
11
Step 15
   6    0.00000000    1.29733866    0.00000000
   6    1.25941176    0.69874052    0.00000000
   6    1.25954954   -0.68867683    0.00000000
   6    0.00000000   -1.38505619    0.00000000
   6   -1.25954954   -0.68867683    0.00000000
   6   -1.25941176    0.69874052    0.00000000
   1    2.17081782    1.29008331    0.00000000
   1    2.18317197   -1.26334676    0.00000000
   1    0.00000000   -2.46950809    0.00000000
   1   -2.18317197   -1.26334676    0.00000000
   1   -2.17081782    1.29008331    0.00000000
11
Step 16
   6    0.00000000    1.29828045    0.00000000
   6    1.25997377    0.69876867    0.00000000
   6    1.25795280   -0.68826303    0.00000000
   6    0.00000000   -1.38429997    0.00000000
   6   -1.25795280   -0.68826303    0.00000000
   6   -1.25997377    0.69876867    0.00000000
   1    2.17524026    1.28463988    0.00000000
   1    2.18240837   -1.25964530    0.00000000
   1    0.00000000   -2.46860609    0.00000000
   1   -2.18240837   -1.25964530    0.00000000
   1   -2.17524026    1.28463988    0.00000000
11
Step 17
   6    0.00000000    1.29990298    0.00000000
   6    1.25962589    0.69846652    0.00000000
   6    1.25613257   -0.68733495    0.00000000
   6    0.00000000   -1.38456048    0.00000000
   6   -1.25613257   -0.68733495    0.00000000
   6   -1.25962589    0.69846652    0.00000000
   1    2.17730137    1.28074636    0.00000000
   1    2.18073778   -1.25663181    0.00000000
   1    0.00000000   -2.46945990    0.00000000
   1   -2.18073778   -1.25663181    0.00000000
   1   -2.17730137    1.28074636    0.00000000
11
Step 18
   6    0.00000000    1.30076824    0.00000000
   6    1.25926722    0.69833763    0.00000000
   6    1.25571300   -0.68682280    0.00000000
   6    0.00000000   -1.38515263    0.00000000
   6   -1.25571300   -0.68682280    0.00000000
   6   -1.25926722    0.69833763    0.00000000
   1    2.17710710    1.27973161    0.00000000
   1    2.17989430   -1.25567941    0.00000000
   1    0.00000000   -2.47037482    0.00000000
   1   -2.17989430   -1.25567941    0.00000000
   1   -2.17710710    1.27973161    0.00000000
11
Step 19
   6    0.00000000    1.30123205    0.00000000
   6    1.25903842    0.69832975    0.00000000
   6    1.25579241   -0.68666312    0.00000000
   6    0.00000000   -1.38550971    0.00000000
   6   -1.25579241   -0.68666312    0.00000000
   6   -1.25903842    0.69832975    0.00000000
   1    2.17674035    1.27963007    0.00000000
   1    2.17992798   -1.25556296    0.00000000
   1    0.00000000   -2.47081497    0.00000000
   1   -2.17992798   -1.25556296    0.00000000
   1   -2.17674035    1.27963007    0.00000000
