10
Step 0
 6                  0.00000000   -1.13183883   -0.33760908
 6                  0.00000000   -0.71679020    1.00128513
 6                 -0.00000000    0.71679020    1.00128513
 6                 -0.00000000    1.13183883   -0.33760908
 7                  0.00000000    0.00000000   -1.14861173
 1                  0.00000000    0.00000000   -2.13284913
 1                  0.00000000   -2.13544431   -0.76102259
 1                  0.00000000   -1.35956878    1.87516614
 1                 -0.00000000    1.35956878    1.87516614
 1                 -0.00000000    2.13544431   -0.76102259
10
Step 1
   6    0.00000000   -1.08844640   -0.27717974
   6    0.00000000   -0.81679020    0.96952488
   6   -0.00000000    0.81679020    0.96952488
   6   -0.00000000    1.08844640   -0.27717974
   7    0.00000000    0.00000000   -1.17399154
   1    0.00000000    0.00000000   -2.14495672
   1    0.00000000   -2.13608080   -0.76532589
   1    0.00000000   -1.36177708    1.86954406
   1   -0.00000000    1.36177708    1.86954406
   1   -0.00000000    2.13608080   -0.76532589
10
Step 2
   6    0.00000000   -1.05416880   -0.22396337
   6    0.00000000   -0.91679020    0.93679079
   6    0.00000000    0.91679020    0.93679079
   6    0.00000000    1.05416880   -0.22396337
   7    0.00000000    0.00000000   -1.18559217
   1    0.00000000    0.00000000   -2.15747977
   1    0.00000000   -2.13562376   -0.76888203
   1    0.00000000   -1.36424889    1.86467976
   1    0.00000000    1.36424889    1.86467976
   1    0.00000000    2.13562376   -0.76888203
10
Step 3
   6    0.00000000   -1.02391792   -0.30198093
   6    0.00000000   -0.98510076    1.03679079
   6    0.00000000    0.98510076    1.03679079
   6    0.00000000    1.02391792   -0.30198093
   7    0.00000000    0.00000000   -1.21275717
   1    0.00000000    0.00000000   -2.18621941
   1    0.00000000   -2.11354792   -0.75709606
   1    0.00000000   -1.37706235    1.85886369
   1    0.00000000    1.37706235    1.85886369
   1    0.00000000    2.11354792   -0.75709606
10
Step 4
   6    0.00000000   -1.04985893   -0.31736408
   6    0.00000000   -0.93413585    0.98030741
   6    0.00000000    0.93413585    0.98030741
   6    0.00000000    1.04985893   -0.31736408
   7    0.00000000    0.00000000   -1.24258066
   1    0.00000000    0.00000000   -2.20328263
   1    0.00000000   -2.09368665   -0.76178619
   1    0.00000000   -1.43308780    1.95886369
   1    0.00000000    1.43308780    1.95886369
   1    0.00000000    2.09368665   -0.76178619
10
Step 5
   6    0.00000000   -0.94985893   -0.38297524
   6    0.00000000   -0.99105372    0.97978590
   6    0.00000000    0.99105372    0.97978590
   6    0.00000000    0.94985893   -0.38297524
   7    0.00000000    0.00000000   -1.21458952
   1    0.00000000    0.00000000   -2.25049686
   1    0.00000000   -2.07429446   -0.77654571
   1    0.00000000   -1.48753509    2.04936742
   1    0.00000000    1.48753509    2.04936742
   1    0.00000000    2.07429446   -0.77654571
10
Step 6
   6    0.00000000   -1.02686416   -0.36939930
   6    0.00000000   -1.06187071    1.02950654
   6    0.00000000    1.06187071    1.02950654
   6    0.00000000    1.02686416   -0.36939930
   7    0.00000000    0.00000000   -1.31458952
   1    0.00000000    0.00000000   -2.20032742
   1    0.00000000   -2.05272843   -0.78385310
   1    0.00000000   -1.48213269    2.01829350
   1    0.00000000    1.48213269    2.01829350
   1    0.00000000    2.05272843   -0.78385310
10
Step 7
   6    0.00000000   -1.09187185   -0.26963821
   6    0.00000000   -0.97623520    1.05385996
   6    0.00000000    0.97623520    1.05385996
   6    0.00000000    1.09187185   -0.26963821
   7    0.00000000    0.00000000   -1.23881786
   1    0.00000000    0.00000000   -2.30032742
   1    0.00000000   -2.06892015   -0.79730923
   1    0.00000000   -1.45064396    1.91974929
   1    0.00000000    1.45064396    1.91974929
   1    0.00000000    2.06892015   -0.79730923
10
Step 8
   6    0.00000000   -1.08989073   -0.28118803
   6    0.00000000   -0.98669419    1.04206626
   6    0.00000000    0.98669419    1.04206626
   6    0.00000000    1.08989073   -0.28118803
   7    0.00000000    0.00000000   -1.24932711
   1    0.00000000    0.00000000   -2.28077256
   1    0.00000000   -2.06996677   -0.81236402
   1    0.00000000   -1.49204630    1.95362482
   1    0.00000000    1.49204630    1.95362482
   1    0.00000000    2.06996677   -0.81236402
10
Step 9
   6    0.00000000   -1.09919873   -0.27471175
   6    0.00000000   -0.97609504    1.02998665
   6    0.00000000    0.97609504    1.02998665
   6    0.00000000    1.09919873   -0.27471175
   7    0.00000000    0.00000000   -1.23121530
   1    0.00000000    0.00000000   -2.23303526
   1    0.00000000   -2.08029410   -0.83791838
   1    0.00000000   -1.53055533    1.95185794
   1    0.00000000    1.53055533    1.95185794
   1    0.00000000    2.08029410   -0.83791838
10
Step 10
   6    0.00000000   -1.11839675   -0.25982341
   6    0.00000000   -0.96457038    1.02860382
   6    0.00000000    0.96457038    1.02860382
   6    0.00000000    1.11839675   -0.25982341
   7    0.00000000    0.00000000   -1.20484459
   1    0.00000000    0.00000000   -2.19180700
   1    0.00000000   -2.08878949   -0.86820673
   1    0.00000000   -1.57693792    1.93484128
   1    0.00000000    1.57693792    1.93484128
   1    0.00000000    2.08878949   -0.86820673
10
Step 11
   6    0.00000000   -1.13680468   -0.25485515
   6    0.00000000   -0.94868499    1.02662427
   6    0.00000000    0.94868499    1.02662427
   6    0.00000000    1.13680468   -0.25485515
   7    0.00000000    0.00000000   -1.17402853
   1    0.00000000    0.00000000   -2.14572487
   1    0.00000000   -2.09318006   -0.89155797
   1    0.00000000   -1.62644313    1.91675471
   1    0.00000000    1.62644313    1.91675471
   1    0.00000000    2.09318006   -0.89155797
10
Step 12
   6    0.00000000   -1.17617998   -0.24135700
   6    0.00000000   -0.94066416    1.04767108
   6    0.00000000    0.94066416    1.04767108
   6    0.00000000    1.17617998   -0.24135700
   7    0.00000000    0.00000000   -1.12475830
   1    0.00000000    0.00000000   -2.10236498
   1    0.00000000   -2.09570921   -0.92875478
   1    0.00000000   -1.71109549    1.87309151
   1    0.00000000    1.71109549    1.87309151
   1    0.00000000    2.09570921   -0.92875478
10
Step 13
   6    0.00000000   -1.20340942   -0.25002347
   6    0.00000000   -0.93722201    1.06654098
   6    0.00000000    0.93722201    1.06654098
   6    0.00000000    1.20340942   -0.25002347
   7    0.00000000    0.00000000   -1.07987835
   1    0.00000000    0.00000000   -2.06771246
   1    0.00000000   -2.08850702   -0.93354133
   1    0.00000000   -1.76271122    1.82790840
   1    0.00000000    1.76271122    1.82790840
   1    0.00000000    2.08850702   -0.93354133
10
Step 14
   6    0.00000000   -1.19989270   -0.27264025
   6    0.00000000   -0.94847128    1.07728865
   6    0.00000000    0.94847128    1.07728865
   6    0.00000000    1.19989270   -0.27264025
   7    0.00000000    0.00000000   -1.05963816
   1    0.00000000    0.00000000   -2.05215105
   1    0.00000000   -2.08303643   -0.91326750
   1    0.00000000   -1.77614316    1.80160287
   1    0.00000000    1.77614316    1.80160287
   1    0.00000000    2.08303643   -0.91326750
10
Step 15
   6    0.00000000   -1.18411844   -0.29399636
   6    0.00000000   -0.95053984    1.07386266
   6    0.00000000    0.95053984    1.07386266
   6    0.00000000    1.18411844   -0.29399636
   7    0.00000000    0.00000000   -1.04407824
   1    0.00000000    0.00000000   -2.04201596
   1    0.00000000   -2.09048790   -0.88756414
   1    0.00000000   -1.76247594    1.78783411
   1    0.00000000    1.76247594    1.78783411
   1    0.00000000    2.09048790   -0.88756414
10
Step 16
   6    0.00000000   -1.18071255   -0.29901831
   6    0.00000000   -0.94917407    1.07224255
   6    0.00000000    0.94917407    1.07224255
   6    0.00000000    1.18071255   -0.29901831
   7    0.00000000    0.00000000   -1.03188648
   1    0.00000000    0.00000000   -2.03091530
   1    0.00000000   -2.09699792   -0.88533878
   1    0.00000000   -1.78226986    1.78060461
   1    0.00000000    1.78226986    1.78060461
   1    0.00000000    2.09699792   -0.88533878
10
Step 17
   6    0.00000000   -1.17945096   -0.29549372
   6    0.00000000   -0.94590238    1.06815072
   6    0.00000000    0.94590238    1.06815072
   6    0.00000000    1.17945096   -0.29549372
   7    0.00000000    0.00000000   -1.03565131
   1    0.00000000    0.00000000   -2.04005050
   1    0.00000000   -2.10027956   -0.88229684
   1    0.00000000   -1.77553310    1.78457993
   1    0.00000000    1.77553310    1.78457993
   1    0.00000000    2.10027956   -0.88229684
10
Step 18
   6    0.00000000   -1.17846453   -0.29505934
   6    0.00000000   -0.94590776    1.06702590
   6    0.00000000    0.94590776    1.06702590
   6    0.00000000    1.17846453   -0.29505934
   7    0.00000000    0.00000000   -1.03701615
   1    0.00000000    0.00000000   -2.04436296
   1    0.00000000   -2.10095419   -0.87803199
   1    0.00000000   -1.77502789    1.78384415
   1    0.00000000    1.77502789    1.78384415
   1    0.00000000    2.10095419   -0.87803199
10
Step 19
   6    0.00000000   -1.17796384   -0.29465023
   6    0.00000000   -0.94587226    1.06542769
   6    0.00000000    0.94587226    1.06542769
   6    0.00000000    1.17796384   -0.29465023
   7    0.00000000    0.00000000   -1.03822735
   1    0.00000000    0.00000000   -2.04780806
   1    0.00000000   -2.10289671   -0.87153136
   1    0.00000000   -1.77549662    1.78086079
   1    0.00000000    1.77549662    1.78086079
   1    0.00000000    2.10289671   -0.87153136
10
Step 20
   6    0.00000000   -1.17832442   -0.29468688
   6    0.00000000   -0.94580114    1.06473807
   6    0.00000000    0.94580114    1.06473807
   6    0.00000000    1.17832442   -0.29468688
   7    0.00000000    0.00000000   -1.03852544
   1    0.00000000    0.00000000   -2.04768253
   1    0.00000000   -2.10468365   -0.86875834
   1    0.00000000   -1.77592414    1.77890031
   1    0.00000000    1.77592414    1.77890031
   1    0.00000000    2.10468365   -0.86875834
10
Step 21
   6    0.00000000   -1.17912289   -0.29494158
   6    0.00000000   -0.94577264    1.06414355
   6    0.00000000    0.94577264    1.06414355
   6    0.00000000    1.17912289   -0.29494158
   7    0.00000000    0.00000000   -1.03893737
   1    0.00000000    0.00000000   -2.04678504
   1    0.00000000   -2.10725153   -0.86621595
   1    0.00000000   -1.77650481    1.77696436
   1    0.00000000    1.77650481    1.77696436
   1    0.00000000    2.10725153   -0.86621595
10
Step 22
   6    0.00000000   -1.17940926   -0.29513045
   6    0.00000000   -0.94584705    1.06414002
   6    0.00000000    0.94584705    1.06414002
   6    0.00000000    1.17940926   -0.29513045
   7    0.00000000    0.00000000   -1.03920471
   1    0.00000000    0.00000000   -2.04667316
   1    0.00000000   -2.10801463   -0.86588562
   1    0.00000000   -1.77674086    1.77690416
   1    0.00000000    1.77674086    1.77690416
   1    0.00000000    2.10801463   -0.86588562
10
Step 23
   6    0.00000000   -1.17954696   -0.29530804
   6    0.00000000   -0.94595169    1.06422285
   6    0.00000000    0.94595169    1.06422285
   6    0.00000000    1.17954696   -0.29530804
   7    0.00000000    0.00000000   -1.03949305
   1    0.00000000    0.00000000   -2.04692730
   1    0.00000000   -2.10844294   -0.86575312
   1    0.00000000   -1.77698371    1.77713766
   1    0.00000000    1.77698371    1.77713766
   1    0.00000000    2.10844294   -0.86575312
